********************************************************************************
*                       GENERAL UTILITY LATTICE PROGRAM                        *
*                                 Julian Gale                                  *
*                      Nanochemistry Research Institute                        *
*             Curtin University of Technology, Western Australia               *
********************************************************************************
* Version = 3.4.9 * Last modified =   9th February 2010                        *
********************************************************************************
*  single       - perform a single point run                                   *
*  potential    - calculate electrostatic site potentials                      *
********************************************************************************

  Job Started  at 14:04.31  2nd November   2011                               

  Number of CPUs =     1


  Total number of configurations input =   1

********************************************************************************
*  Input for Configuration =   1                                               *
********************************************************************************

  Formula = Cu2O2                                                       

  Number of irreducible atoms/shells =       2


  Total number atoms/shells =       4

  Dimensionality = 3               :  Bulk   


  Symmetry :

  Crystal family                   :  Monoclinic  
  Crystal class  (Groth - 1921)    :  Monoclinic Prismatic                 

  Space group (centrosymmetric)    :  C 2/C           

  Patterson group                  :  C 2/m    

  Cartesian lattice vectors (Angstroms) :

        2.339850    1.715700    0.000000
       -2.339850    1.715700    0.000000
       -0.826712    0.000000    5.069230

  Primitive cell parameters :            Full cell parameters :

  a =   2.9015    alpha =  82.5418       a =   4.6797    alpha =  90.0000
  b =   2.9015    beta  =  97.4582       b =   3.4314    beta  =  99.2625
  c =   5.1362    gamma = 107.4984       c =   5.1362    gamma =  90.0000

  Initial volumes (Angstroms**3):

  Primitive cell =          40.700655    Full cell =          81.401311

  Temperature of configuration =  0.000     K 

  Pressure of configuration =         0.000 GPa 

  Fractional coordinates of asymmetric unit :

--------------------------------------------------------------------------------
   No.  Atomic       x           y          z         Charge      Occupancy
        Label      (Frac)      (Frac)     (Frac)        (e)         (Frac)  
--------------------------------------------------------------------------------
      1 Cu    c    0.250000    0.250000    0.000000      2.0000    1.000000    
      2 O     c    0.000000    0.582200    0.250000     -2.0000    1.000000    
--------------------------------------------------------------------------------



********************************************************************************
*  General input information                                                   *
********************************************************************************

  Species output for all configurations : 

--------------------------------------------------------------------------------
  Species    Type    Atomic    Atomic    Charge       Radii (Angs)     Library
                     Number     Mass       (e)     Cova   Ionic  VDW   Symbol
--------------------------------------------------------------------------------
    Cu       Core       29      63.55     2.0000   1.520  0.000  1.540          
    O        Core        8      16.00    -2.0000   0.730  0.000  1.360          
--------------------------------------------------------------------------------


  Lattice summation method               =    Ewald
  Accuracy factor for lattice sums       =    8.000


  Time limit = Infinity

********************************************************************************
*  Output for configuration   1                                                *
********************************************************************************


  Components of energy : 

--------------------------------------------------------------------------------
  Interatomic potentials     =           0.00000000 eV
  Monopole - monopole (real) =         -26.29645982 eV
  Monopole - monopole (recip)=         -73.88523783 eV
  Monopole - monopole (total)=        -100.18169764 eV
--------------------------------------------------------------------------------
  Total lattice energy : 
    Primitive unit cell      =        -100.18169764 eV
    Non-primitive unit cell  =        -200.36339529 eV
--------------------------------------------------------------------------------
  Total lattice energy (in kJmol-1): 
    Primitive unit cell      =           -9666.0024 kJ/(mole unit cells)
    Non-primitive unit cell  =          -19332.0048 kJ/(mole unit cells)
--------------------------------------------------------------------------------


  Electrostatic potential at atomic positions :

-------------------------------------------------------------------------------
 Site  Atomic      Potential                Derivatives (V/Angs)
 No.   Label          (V)                 x           y           z
-------------------------------------------------------------------------------
     1 Cu    c    -25.205163          -0.000000   -0.000000   -0.000000
     2 O     c     24.885686           0.000000    2.525375    0.000000
-------------------------------------------------------------------------------

  Total time to end of lattice properties =       0.0156 s


  Peak dynamic memory used =       0.46 MB 


  Timing analysis for GULP :

--------------------------------------------------------------------------------
  Task / Subroutine                                          Time (Seconds)
--------------------------------------------------------------------------------
  Calculation of reciprocal space energy and derivatives          0.0156
--------------------------------------------------------------------------------
  Total CPU time                                                  0.0156
--------------------------------------------------------------------------------


  Job Finished at 14:04.31  2nd November   2011                               

