********************************************************************************
*                       GENERAL UTILITY LATTICE PROGRAM                        *
*                                 Julian Gale                                  *
*                      Nanochemistry Research Institute                        *
*             Curtin University of Technology, Western Australia               *
********************************************************************************
* Version = 3.4.9 * Last modified =   9th February 2010                        *
********************************************************************************
*  single       - perform a single point run                                   *
*  potential    - calculate electrostatic site potentials                      *
********************************************************************************

  Job Started  at 11:32.16  2nd November   2011                               

  Number of CPUs =     1


  Total number of configurations input =   1

********************************************************************************
*  Input for Configuration =   1                                               *
********************************************************************************

  Formula = FeO                                                         

  Number of irreducible atoms/shells =       2


  Total number atoms/shells =       2

  Dimensionality = 3               :  Bulk   


  Symmetry :

  Crystal family                   :  Cubic       
  Crystal class  (Groth - 1921)    :  Cubic Hexakisoctahedral              

  Space group (centrosymmetric)    :  F M 3 M         

  Patterson group                  :  F m -3 m 

  Cartesian lattice vectors (Angstroms) :

        0.000000    2.185900    2.185900
        2.185900    0.000000    2.185900
        2.185900    2.185900    0.000000

  Primitive cell parameters :            Full cell parameters :

  a =   3.0913    alpha =  60.0000       a =   4.3718    alpha =  90.0000
  b =   3.0913    beta  =  60.0000       b =   4.3718    beta  =  90.0000
  c =   3.0913    gamma =  60.0000       c =   4.3718    gamma =  90.0000

  Initial volumes (Angstroms**3):

  Primitive cell =          20.889155    Full cell =          83.556619

  Temperature of configuration =  0.000     K 

  Pressure of configuration =         0.000 GPa 

  Fractional coordinates of asymmetric unit :

--------------------------------------------------------------------------------
   No.  Atomic       x           y          z         Charge      Occupancy
        Label      (Frac)      (Frac)     (Frac)        (e)         (Frac)  
--------------------------------------------------------------------------------
      1 Fe    c    0.000000    0.000000    0.000000      2.0000    1.000000    
      2 O     c    0.500000    0.500000    0.500000     -2.0000    1.000000    
--------------------------------------------------------------------------------



********************************************************************************
*  General input information                                                   *
********************************************************************************

  Species output for all configurations : 

--------------------------------------------------------------------------------
  Species    Type    Atomic    Atomic    Charge       Radii (Angs)     Library
                     Number     Mass       (e)     Cova   Ionic  VDW   Symbol
--------------------------------------------------------------------------------
    Fe       Core       26      55.85     2.0000   1.340  0.000  2.000          
    O        Core        8      16.00    -2.0000   0.730  0.000  1.360          
--------------------------------------------------------------------------------


  Lattice summation method               =    Ewald
  Accuracy factor for lattice sums       =    8.000


  Time limit = Infinity

********************************************************************************
*  Output for configuration   1                                                *
********************************************************************************


  Components of energy : 

--------------------------------------------------------------------------------
  Interatomic potentials     =           0.00000000 eV
  Monopole - monopole (real) =          -4.92885643 eV
  Monopole - monopole (recip)=         -41.11992519 eV
  Monopole - monopole (total)=         -46.04878161 eV
--------------------------------------------------------------------------------
  Total lattice energy : 
    Primitive unit cell      =         -46.04878161 eV
    Non-primitive unit cell  =        -184.19512646 eV
--------------------------------------------------------------------------------
  Total lattice energy (in kJmol-1): 
    Primitive unit cell      =           -4443.0035 kJ/(mole unit cells)
    Non-primitive unit cell  =          -17772.0140 kJ/(mole unit cells)
--------------------------------------------------------------------------------


  Electrostatic potential at atomic positions :

-------------------------------------------------------------------------------
 Site  Atomic      Potential                Derivatives (V/Angs)
 No.   Label          (V)                 x           y           z
-------------------------------------------------------------------------------
     1 Fe    c    -23.024391           0.000000    0.000000    0.000000
     2 O     c     23.024391           0.000000    0.000000    0.000000
-------------------------------------------------------------------------------

  Total time to end of lattice properties =       0.0156 s


  Peak dynamic memory used =       0.46 MB 


  Timing analysis for GULP :

--------------------------------------------------------------------------------
  Task / Subroutine                                          Time (Seconds)
--------------------------------------------------------------------------------
  Symmetry generation of equivalent positions                     0.0156
--------------------------------------------------------------------------------
  Total CPU time                                                  0.0156
--------------------------------------------------------------------------------


  Job Finished at 11:32.16  2nd November   2011                               

