********************************************************************************
*                       GENERAL UTILITY LATTICE PROGRAM                        *
*                                 Julian Gale                                  *
*                      Nanochemistry Research Institute                        *
*             Curtin University of Technology, Western Australia               *
********************************************************************************
* Version = 3.4.9 * Last modified =   9th February 2010                        *
********************************************************************************
*  single       - perform a single point run                                   *
*  potential    - calculate electrostatic site potentials                      *
********************************************************************************

  Job Started  at 09:35.21  1st November   2011                               

  Number of CPUs =     1


  Total number of configurations input =   1

********************************************************************************
*  Input for Configuration =   1                                               *
********************************************************************************

  Formula = In16O24                                                     

  Number of irreducible atoms/shells =       3


  Total number atoms/shells =      40

  Dimensionality = 3               :  Bulk   


  Symmetry :

  Crystal family                   :  Cubic       
  Crystal class  (Groth - 1921)    :  Cubic Dyakisdodecahedral             

  Space group (centrosymmetric)    :  I A 3           

  Patterson group                  :  I m -3   

  Cartesian lattice vectors (Angstroms) :

       -5.058500    5.058500    5.058500
        5.058500   -5.058500    5.058500
        5.058500    5.058500   -5.058500

  Primitive cell parameters :            Full cell parameters :

  a =   8.7616    alpha = 109.4712       a =  10.1170    alpha =  90.0000
  b =   8.7616    beta  = 109.4712       b =  10.1170    beta  =  90.0000
  c =   8.7616    gamma = 109.4712       c =  10.1170    gamma =  90.0000

  Initial volumes (Angstroms**3):

  Primitive cell =         517.756136    Full cell =        1035.512272

  Temperature of configuration =  0.000     K 

  Pressure of configuration =         0.000 GPa 

  Fractional coordinates of asymmetric unit :

--------------------------------------------------------------------------------
   No.  Atomic       x           y          z         Charge      Occupancy
        Label      (Frac)      (Frac)     (Frac)        (e)         (Frac)  
--------------------------------------------------------------------------------
      1 In    c    0.250000    0.250000    0.250000      3.0000    1.000000    
      2 In    c    0.466300    0.000000    0.250000      3.0000    1.000000    
      3 O     c    0.391200    0.155800    0.379600     -2.0000    1.000000    
--------------------------------------------------------------------------------



********************************************************************************
*  General input information                                                   *
********************************************************************************

  Species output for all configurations : 

--------------------------------------------------------------------------------
  Species    Type    Atomic    Atomic    Charge       Radii (Angs)     Library
                     Number     Mass       (e)     Cova   Ionic  VDW   Symbol
--------------------------------------------------------------------------------
    In       Core       49     114.82     3.0000   1.630  0.000  2.430          
    Zn       Core       30      65.39     2.0000   1.450  0.000  2.160          
    O        Core        8      16.00    -2.0000   0.730  0.000  1.360          
--------------------------------------------------------------------------------


  Lattice summation method               =    Ewald
  Accuracy factor for lattice sums       =    8.000


  Time limit = Infinity

********************************************************************************
*  Output for configuration   1                                                *
********************************************************************************


  Components of energy : 

--------------------------------------------------------------------------------
  Interatomic potentials     =           0.00000000 eV
  Monopole - monopole (real) =        -740.58163391 eV
  Monopole - monopole (recip)=        -585.25374749 eV
  Monopole - monopole (total)=       -1325.83538140 eV
--------------------------------------------------------------------------------
  Total lattice energy : 
    Primitive unit cell      =       -1325.83538140 eV
    Non-primitive unit cell  =       -2651.67076279 eV
--------------------------------------------------------------------------------
  Total lattice energy (in kJmol-1): 
    Primitive unit cell      =         -127922.8471 kJ/(mole unit cells)
    Non-primitive unit cell  =         -255845.6941 kJ/(mole unit cells)
--------------------------------------------------------------------------------


  Electrostatic potential at atomic positions :

-------------------------------------------------------------------------------
 Site  Atomic      Potential                Derivatives (V/Angs)
 No.   Label          (V)                 x           y           z
-------------------------------------------------------------------------------
     1 In    c    -32.865715           0.000000   -0.000000   -0.000000
     2 In    c    -32.082024          -0.555653    0.000000   -0.000000
     3 O     c     22.965194          -0.982303   -1.060675    0.477724
-------------------------------------------------------------------------------

  Total time to end of lattice properties =       0.0156 s


  Peak dynamic memory used =       0.52 MB 


  Timing analysis for GULP :

--------------------------------------------------------------------------------
  Task / Subroutine                                          Time (Seconds)
--------------------------------------------------------------------------------
  Calculation of reciprocal space energy and derivatives          0.0156
--------------------------------------------------------------------------------
  Total CPU time                                                  0.0156
--------------------------------------------------------------------------------


  Job Finished at 09:35.21  1st November   2011                               

