********************************************************************************
*                       GENERAL UTILITY LATTICE PROGRAM                        *
*                                 Julian Gale                                  *
*                      Nanochemistry Research Institute                        *
*             Curtin University of Technology, Western Australia               *
********************************************************************************
* Version = 3.4.9 * Last modified =   9th February 2010                        *
********************************************************************************
*  single       - perform a single point run                                   *
*  potential    - calculate electrostatic site potentials                      *
********************************************************************************

  Job Started  at 10:43.10  1st November   2011                               

  Number of CPUs =     1


  Total number of configurations input =   1

********************************************************************************
*  Input for Configuration =   1                                               *
********************************************************************************

  Formula = Li2O                                                        

  Number of irreducible atoms/shells =       2


  Total number atoms/shells =       3

  Dimensionality = 3               :  Bulk   


  Symmetry :

  Crystal family                   :  Cubic       
  Crystal class  (Groth - 1921)    :  Cubic Hexakisoctahedral              

  Space group (centrosymmetric)    :  F M 3 M         

  Patterson group                  :  F m -3 m 

  Cartesian lattice vectors (Angstroms) :

        0.000000    2.305000    2.305000
        2.305000    0.000000    2.305000
        2.305000    2.305000    0.000000

  Primitive cell parameters :            Full cell parameters :

  a =   3.2598    alpha =  60.0000       a =   4.6100    alpha =  90.0000
  b =   3.2598    beta  =  60.0000       b =   4.6100    beta  =  90.0000
  c =   3.2598    gamma =  60.0000       c =   4.6100    gamma =  90.0000

  Initial volumes (Angstroms**3):

  Primitive cell =          24.493045    Full cell =          97.972181

  Temperature of configuration =  0.000     K 

  Pressure of configuration =         0.000 GPa 

  Fractional coordinates of asymmetric unit :

--------------------------------------------------------------------------------
   No.  Atomic       x           y          z         Charge      Occupancy
        Label      (Frac)      (Frac)     (Frac)        (e)         (Frac)  
--------------------------------------------------------------------------------
      1 Li    c    0.250000    0.250000    0.250000      1.0000    1.000000    
      2 O     c    0.000000    0.000000    0.000000     -2.0000    1.000000    
--------------------------------------------------------------------------------



********************************************************************************
*  General input information                                                   *
********************************************************************************

  Species output for all configurations : 

--------------------------------------------------------------------------------
  Species    Type    Atomic    Atomic    Charge       Radii (Angs)     Library
                     Number     Mass       (e)     Cova   Ionic  VDW   Symbol
--------------------------------------------------------------------------------
    Li       Core        3       6.94     1.0000   0.680  0.000  1.800          
    O        Core        8      16.00    -2.0000   0.730  0.000  1.360          
--------------------------------------------------------------------------------


  Lattice summation method               =    Ewald
  Accuracy factor for lattice sums       =    8.000


  Time limit = Infinity

********************************************************************************
*  Output for configuration   1                                                *
********************************************************************************


  Components of energy : 

--------------------------------------------------------------------------------
  Interatomic potentials     =           0.00000000 eV
  Monopole - monopole (real) =          -5.43786973 eV
  Monopole - monopole (recip)=         -30.91004184 eV
  Monopole - monopole (total)=         -36.34791157 eV
--------------------------------------------------------------------------------
  Total lattice energy : 
    Primitive unit cell      =         -36.34791157 eV
    Non-primitive unit cell  =        -145.39164628 eV
--------------------------------------------------------------------------------
  Total lattice energy (in kJmol-1): 
    Primitive unit cell      =           -3507.0178 kJ/(mole unit cells)
    Non-primitive unit cell  =          -14028.0714 kJ/(mole unit cells)
--------------------------------------------------------------------------------


  Electrostatic potential at atomic positions :

-------------------------------------------------------------------------------
 Site  Atomic      Potential                Derivatives (V/Angs)
 No.   Label          (V)                 x           y           z
-------------------------------------------------------------------------------
     1 Li    c    -12.715277          -0.000000   -0.000000   -0.000000
     2 O     c     23.632634          -0.000000   -0.000000   -0.000000
-------------------------------------------------------------------------------

  Total time to end of lattice properties =       0.0000 s


  Peak dynamic memory used =       0.46 MB 


  Timing analysis for GULP :

--------------------------------------------------------------------------------
  Task / Subroutine                                          Time (Seconds)
--------------------------------------------------------------------------------
--------------------------------------------------------------------------------
  Total CPU time                                                  0.0000
--------------------------------------------------------------------------------


  Job Finished at 10:43.10  1st November   2011                               

