********************************************************************************
*                       GENERAL UTILITY LATTICE PROGRAM                        *
*                                 Julian Gale                                  *
*                      Nanochemistry Research Institute                        *
*             Curtin University of Technology, Western Australia               *
********************************************************************************
* Version = 3.4.9 * Last modified =   9th February 2010                        *
********************************************************************************
*  single       - perform a single point run                                   *
*  potential    - calculate electrostatic site potentials                      *
********************************************************************************

  Job Started  at 11:59.40  1st November   2011                               

  Number of CPUs =     1


  Total number of configurations input =   1

********************************************************************************
*  Input for Configuration =   1                                               *
********************************************************************************

  Formula = MgO                                                         

  Number of irreducible atoms/shells =       2


  Total number atoms/shells =       2

  Dimensionality = 3               :  Bulk   


  Symmetry :

  Crystal family                   :  Cubic       
  Crystal class  (Groth - 1921)    :  Cubic Hexakisoctahedral              

  Space group (centrosymmetric)    :  F M 3 M         

  Patterson group                  :  F m -3 m 

  Cartesian lattice vectors (Angstroms) :

       -1.052725    1.823373    2.105450
        2.105450    0.000000    2.105450
        1.052725    1.823373    0.000000

  Primitive cell parameters :            Full cell parameters :

  a =   2.9776    alpha =  69.2952       a =   4.2109    alpha =  90.0000
  b =   2.9776    beta  =  69.2952       b =   4.2109    beta  =  90.0000
  c =   2.1054    gamma =  75.5225       c =   4.2109    gamma = 120.0000

  Initial volumes (Angstroms**3):

  Primitive cell =          16.165734    Full cell =          64.662935

  Temperature of configuration =  0.000     K 

  Pressure of configuration =         0.000 GPa 

  Fractional coordinates of asymmetric unit :

--------------------------------------------------------------------------------
   No.  Atomic       x           y          z         Charge      Occupancy
        Label      (Frac)      (Frac)     (Frac)        (e)         (Frac)  
--------------------------------------------------------------------------------
      1 Mg    c    0.000000    0.000000    0.000000      2.0000    1.000000    
      2 O     c    0.500000    0.500000    0.500000     -2.0000    1.000000    
--------------------------------------------------------------------------------



********************************************************************************
*  General input information                                                   *
********************************************************************************

  Species output for all configurations : 

--------------------------------------------------------------------------------
  Species    Type    Atomic    Atomic    Charge       Radii (Angs)     Library
                     Number     Mass       (e)     Cova   Ionic  VDW   Symbol
--------------------------------------------------------------------------------
    Mg       Core       12      24.31     2.0000   1.100  0.000  1.640          
    O        Core        8      16.00    -2.0000   0.730  0.000  1.360          
--------------------------------------------------------------------------------


  Lattice summation method               =    Ewald
  Accuracy factor for lattice sums       =    8.000


  Time limit = Infinity

********************************************************************************
*  Output for configuration   1                                                *
********************************************************************************


  Components of energy : 

--------------------------------------------------------------------------------
  Interatomic potentials     =           0.00000000 eV
  Monopole - monopole (real) =          -2.82200188 eV
  Monopole - monopole (recip)=         -41.51534118 eV
  Monopole - monopole (total)=         -44.33734306 eV
--------------------------------------------------------------------------------
  Total lattice energy : 
    Primitive unit cell      =         -44.33734306 eV
    Non-primitive unit cell  =        -177.34937223 eV
--------------------------------------------------------------------------------
  Total lattice energy (in kJmol-1): 
    Primitive unit cell      =           -4277.8758 kJ/(mole unit cells)
    Non-primitive unit cell  =          -17111.5034 kJ/(mole unit cells)
--------------------------------------------------------------------------------


  Electrostatic potential at atomic positions :

-------------------------------------------------------------------------------
 Site  Atomic      Potential                Derivatives (V/Angs)
 No.   Label          (V)                 x           y           z
-------------------------------------------------------------------------------
     1 Mg    c    -22.168672           0.000000    0.000000   -0.000000
     2 O     c     22.168672           0.000000   -0.000000    0.000000
-------------------------------------------------------------------------------

  Total time to end of lattice properties =       0.0156 s


  Peak dynamic memory used =       0.46 MB 


  Timing analysis for GULP :

--------------------------------------------------------------------------------
  Task / Subroutine                                          Time (Seconds)
--------------------------------------------------------------------------------
  Symmetry generation of equivalent positions                     0.0156
--------------------------------------------------------------------------------
  Total CPU time                                                  0.0156
--------------------------------------------------------------------------------


  Job Finished at 11:59.40  1st November   2011                               

