********************************************************************************
*                       GENERAL UTILITY LATTICE PROGRAM                        *
*                                 Julian Gale                                  *
*                      Nanochemistry Research Institute                        *
*             Curtin University of Technology, Western Australia               *
********************************************************************************
* Version = 3.4.9 * Last modified =   9th February 2010                        *
********************************************************************************
*  single       - perform a single point run                                   *
*  potential    - calculate electrostatic site potentials                      *
*  distance     - calculate distances                                          *
********************************************************************************

  Job Started  at 14:32.45 13th December   2011                               

  Number of CPUs =     1


  Total number of configurations input =   1

********************************************************************************
*  Input for Configuration =   1                                               *
********************************************************************************

  Formula = Mo4O12                                                      

  Number of irreducible atoms/shells =       4


  Total number atoms/shells =      16

  Dimensionality = 3               :  Bulk   


  Symmetry :

  Crystal family                   :  Orthorhombic
  Crystal class  (Groth - 1921)    :  Orthorhombic Bipyramidal             

  Space group (centrosymmetric)    :  P N M A         

  Patterson group                  :  P m m m  

  Cartesian lattice vectors (Angstroms) :

       13.855300    0.000000    0.000000
        0.000000    3.696460    0.000000
        0.000000    0.000000    3.962870

  Cell parameters (Angstroms/Degrees):

  a =      13.8553    alpha =  90.0000
  b =       3.6965    beta  =  90.0000
  c =       3.9629    gamma =  90.0000

  Initial cell volume =         202.960615 Angs**3

  Temperature of configuration =  0.000     K 

  Pressure of configuration =         0.000 GPa 

  Fractional coordinates of asymmetric unit :

--------------------------------------------------------------------------------
   No.  Atomic       x           y          z         Charge      Occupancy
        Label      (Frac)      (Frac)     (Frac)        (e)         (Frac)  
--------------------------------------------------------------------------------
      1 Mo    c    0.101640    0.250000    0.086690      6.0000    1.000000    
      2 O     c    0.435130    0.250000    0.499400     -2.0000    1.000000    
      3 O     c    0.086570    0.250000    0.521200     -2.0000    1.000000    
      4 O     c    0.221400    0.250000    0.037300     -2.0000    1.000000    
--------------------------------------------------------------------------------



  Distance calculation :


  Cutoff for distances  =      2.000000 Angstroms

--------------------------------------------------------------------------------
  Asymmetric unit site  Full lattice sites    No.  Distance      No.  Distance
      No.   At.No.            At.No.                (Angs)             (Angs) 
--------------------------------------------------------------------------------
       1   Mo    core        O     core         1    1.6708        1    1.7345
                                                2    1.9481
--------------------------------------------------------------------------------
       2   O     core        Mo    core         2    1.9481
--------------------------------------------------------------------------------
       3   O     core        Mo    core         1    1.7345
--------------------------------------------------------------------------------
       4   O     core        Mo    core         1    1.6708
--------------------------------------------------------------------------------



********************************************************************************
*  General input information                                                   *
********************************************************************************

  Species output for all configurations : 

--------------------------------------------------------------------------------
  Species    Type    Atomic    Atomic    Charge       Radii (Angs)     Library
                     Number     Mass       (e)     Cova   Ionic  VDW   Symbol
--------------------------------------------------------------------------------
    Mo       Core       42      95.94     6.0000   1.470  0.000  2.190          
    O        Core        8      16.00    -2.0000   0.730  0.000  1.360          
--------------------------------------------------------------------------------


  Lattice summation method               =    Ewald
  Accuracy factor for lattice sums       =    8.000


  Time limit = Infinity

********************************************************************************
*  Output for configuration   1                                                *
********************************************************************************


  Components of energy : 

--------------------------------------------------------------------------------
  Interatomic potentials     =           0.00000000 eV
  Monopole - monopole (real) =        -468.05909152 eV
  Monopole - monopole (recip)=        -583.39649211 eV
  Monopole - monopole (total)=       -1051.45558363 eV
--------------------------------------------------------------------------------
  Total lattice energy       =       -1051.45558363 eV
--------------------------------------------------------------------------------
  Total lattice energy       =         -101449.3908 kJ/(mole unit cells)
--------------------------------------------------------------------------------


  Electrostatic potential at atomic positions :

-------------------------------------------------------------------------------
 Site  Atomic      Potential                Derivatives (V/Angs)
 No.   Label          (V)                 x           y           z
-------------------------------------------------------------------------------
     1 Mo    c    -60.108871          -6.992244   -0.000000   -1.850137
     2 O     c     33.337074           1.667590    0.000000    4.234782
     3 O     c     28.761535          -0.654051    0.000000  -11.959307
     4 O     c     20.438673         -22.785057    0.000000    2.406950
-------------------------------------------------------------------------------

  Total time to end of lattice properties =       0.0156 s


  Peak dynamic memory used =       0.49 MB 


  Timing analysis for GULP :

--------------------------------------------------------------------------------
  Task / Subroutine                                          Time (Seconds)
--------------------------------------------------------------------------------
  Calculation of reciprocal space energy and derivatives          0.0156
--------------------------------------------------------------------------------
  Total CPU time                                                  0.0156
--------------------------------------------------------------------------------


  Job Finished at 14:32.45 13th December   2011                               

