********************************************************************************
*                       GENERAL UTILITY LATTICE PROGRAM                        *
*                                 Julian Gale                                  *
*                      Nanochemistry Research Institute                        *
*             Curtin University of Technology, Western Australia               *
********************************************************************************
* Version = 3.4.9 * Last modified =   9th February 2010                        *
********************************************************************************
*  single       - perform a single point run                                   *
*  potential    - calculate electrostatic site potentials                      *
*  distance     - calculate distances                                          *
********************************************************************************

  Job Started  at 12:42.29  8th November   2011                               

  Number of CPUs =     1


  Total number of configurations input =   1

********************************************************************************
*  Input for Configuration =   1                                               *
********************************************************************************

  Formula = Ru2O8                                                       

  Number of irreducible atoms/shells =       3


  Total number atoms/shells =      10

  Dimensionality = 3               :  Bulk   


  Symmetry :

  Crystal family                   :  Monoclinic  
  Crystal class  (Groth - 1921)    :  Monoclinic Prismatic                 

  Space group (centrosymmetric)    :  C 2/C           

  Patterson group                  :  C 2/m    

  Cartesian lattice vectors (Angstroms) :

        4.651200    2.198355    0.000000
       -4.651200    2.198355    0.000000
       -3.814928    0.000000    7.544747

  Primitive cell parameters :            Full cell parameters :

  a =   5.1446    alpha =  65.9231       a =   9.3024    alpha =  90.0000
  b =   5.1446    beta  = 114.0769       b =   4.3967    beta  = 116.8230
  c =   8.4544    gamma = 129.4052       c =   8.4544    gamma =  90.0000

  Initial volumes (Angstroms**3):

  Primitive cell =         154.289901    Full cell =         308.579803

  Temperature of configuration =  0.000     K 

  Pressure of configuration =         0.000 GPa 

  Fractional coordinates of asymmetric unit :

--------------------------------------------------------------------------------
   No.  Atomic       x           y          z         Charge      Occupancy
        Label      (Frac)      (Frac)     (Frac)        (e)         (Frac)  
--------------------------------------------------------------------------------
      1 Ru    c    0.000000    0.465890    0.750000      8.0000    1.000000    
      2 O     c    0.118640    0.465890    0.693840     -2.0000    1.000000    
      3 O     c    0.118040    0.016590    0.923840     -2.0000    1.000000    
--------------------------------------------------------------------------------



  Distance calculation :


  Cutoff for distances  =      2.000000 Angstroms

--------------------------------------------------------------------------------
  Asymmetric unit site  Full lattice sites    No.  Distance      No.  Distance
      No.   At.No.            At.No.                (Angs)             (Angs) 
--------------------------------------------------------------------------------
       1   Ru    core        O     core         2    1.3843
--------------------------------------------------------------------------------
       2   O     core        Ru    core         1    1.3843
--------------------------------------------------------------------------------



********************************************************************************
*  General input information                                                   *
********************************************************************************

  Species output for all configurations : 

--------------------------------------------------------------------------------
  Species    Type    Atomic    Atomic    Charge       Radii (Angs)     Library
                     Number     Mass       (e)     Cova   Ionic  VDW   Symbol
--------------------------------------------------------------------------------
    Ru       Core       44     101.07     8.0000   1.400  0.000  2.090          
    O        Core        8      16.00    -2.0000   0.730  0.000  1.360          
--------------------------------------------------------------------------------


  Lattice summation method               =    Ewald
  Accuracy factor for lattice sums       =    8.000


  Time limit = Infinity

********************************************************************************
*  Output for configuration   1                                                *
********************************************************************************


  Components of energy : 

--------------------------------------------------------------------------------
  Interatomic potentials     =           0.00000000 eV
  Monopole - monopole (real) =        -344.53834767 eV
  Monopole - monopole (recip)=        -511.00328200 eV
  Monopole - monopole (total)=        -855.54162967 eV
--------------------------------------------------------------------------------
  Total lattice energy : 
    Primitive unit cell      =        -855.54162967 eV
    Non-primitive unit cell  =       -1711.08325934 eV
--------------------------------------------------------------------------------
  Total lattice energy (in kJmol-1): 
    Primitive unit cell      =          -82546.6891 kJ/(mole unit cells)
    Non-primitive unit cell  =         -165093.3782 kJ/(mole unit cells)
--------------------------------------------------------------------------------


  Electrostatic potential at atomic positions :

-------------------------------------------------------------------------------
 Site  Atomic      Potential                Derivatives (V/Angs)
 No.   Label          (V)                 x           y           z
-------------------------------------------------------------------------------
     1 Ru    c    -76.920885           0.000000    1.846594    0.000000
     2 O     c     42.081203         -48.998238    0.914849   13.890279
     3 O     c     17.962434          -1.795416    2.938137   -6.041982
-------------------------------------------------------------------------------

  Total time to end of lattice properties =       0.0000 s


  Peak dynamic memory used =       0.47 MB 


  Timing analysis for GULP :

--------------------------------------------------------------------------------
  Task / Subroutine                                          Time (Seconds)
--------------------------------------------------------------------------------
--------------------------------------------------------------------------------
  Total CPU time                                                  0.0000
--------------------------------------------------------------------------------


  Job Finished at 12:42.29  8th November   2011                               

