********************************************************************************
*                       GENERAL UTILITY LATTICE PROGRAM                        *
*                                 Julian Gale                                  *
*                      Nanochemistry Research Institute                        *
*             Curtin University of Technology, Western Australia               *
********************************************************************************
* Version = 3.4.9 * Last modified =   9th February 2010                        *
********************************************************************************
*  single       - perform a single point run                                   *
*  potential    - calculate electrostatic site potentials                      *
*  distance     - calculate distances                                          *
********************************************************************************

  Job Started  at 10:39.22  9th November   2011                               

  Number of CPUs =     1


  Total number of configurations input =   1

********************************************************************************
*  Input for Configuration =   1                                               *
********************************************************************************

  Formula = Sb4O10                                                      

  Number of irreducible atoms/shells =       4


  Total number atoms/shells =      14

  Dimensionality = 3               :  Bulk   


  Symmetry :

  Crystal family                   :  Monoclinic  
  Crystal class  (Groth - 1921)    :  Monoclinic Prismatic                 

  Space group (centrosymmetric)    :  C 2/C           

  Patterson group                  :  C 2/m    

  Cartesian lattice vectors (Angstroms) :

        6.322700    2.391100    0.000000
       -6.322700    2.391100    0.000000
       -1.305710    0.000000    5.264700

  Primitive cell parameters :            Full cell parameters :

  a =   6.7597    alpha =  76.9879       a =  12.6454    alpha =  90.0000
  b =   6.7597    beta  = 103.0121       b =   4.7822    beta  = 103.9290
  c =   5.4242    gamma = 138.5691       c =   5.4242    gamma =  90.0000

  Initial volumes (Angstroms**3):

  Primitive cell =         159.185663    Full cell =         318.371326

  Temperature of configuration =  0.000     K 

  Pressure of configuration =         0.000 GPa 

  Fractional coordinates of asymmetric unit :

--------------------------------------------------------------------------------
   No.  Atomic       x           y          z         Charge      Occupancy
        Label      (Frac)      (Frac)     (Frac)        (e)         (Frac)  
--------------------------------------------------------------------------------
      1 Sb    c    0.137800    0.240900    0.279800      5.0000    1.000000    
      2 O     c    0.297100    0.079900    0.375200     -2.0000    1.000000    
      3 O     c    0.397100    0.414700    0.051000     -2.0000    1.000000    
      4 O     c    0.000000    0.419400    0.250000     -2.0000    1.000000    
--------------------------------------------------------------------------------



  Distance calculation :


  Cutoff for distances  =      2.000000 Angstroms

--------------------------------------------------------------------------------
  Asymmetric unit site  Full lattice sites    No.  Distance      No.  Distance
      No.   At.No.            At.No.                (Angs)             (Angs) 
--------------------------------------------------------------------------------
       1   Sb    core        O     core         1    1.8939        1    1.9120
                                                1    1.9146
--------------------------------------------------------------------------------
       3   O     core        Sb    core         1    1.8939        1    1.9146
--------------------------------------------------------------------------------
       4   O     core        Sb    core         2    1.9120
--------------------------------------------------------------------------------



********************************************************************************
*  General input information                                                   *
********************************************************************************

  Species output for all configurations : 

--------------------------------------------------------------------------------
  Species    Type    Atomic    Atomic    Charge       Radii (Angs)     Library
                     Number     Mass       (e)     Cova   Ionic  VDW   Symbol
--------------------------------------------------------------------------------
    Sb       Core       51     121.75     5.0000   1.460  0.000  2.170          
    O        Core        8      16.00    -2.0000   0.730  0.000  1.360          
--------------------------------------------------------------------------------


  Lattice summation method               =    Ewald
  Accuracy factor for lattice sums       =    8.000


  Time limit = Infinity

********************************************************************************
*  Output for configuration   1                                                *
********************************************************************************


  Components of energy : 

--------------------------------------------------------------------------------
  Interatomic potentials     =           0.00000000 eV
  Monopole - monopole (real) =        -317.04854066 eV
  Monopole - monopole (recip)=        -459.65804752 eV
  Monopole - monopole (total)=        -776.70658818 eV
--------------------------------------------------------------------------------
  Total lattice energy : 
    Primitive unit cell      =        -776.70658818 eV
    Non-primitive unit cell  =       -1553.41317636 eV
--------------------------------------------------------------------------------
  Total lattice energy (in kJmol-1): 
    Primitive unit cell      =          -74940.3127 kJ/(mole unit cells)
    Non-primitive unit cell  =         -149880.6254 kJ/(mole unit cells)
--------------------------------------------------------------------------------


  Electrostatic potential at atomic positions :

-------------------------------------------------------------------------------
 Site  Atomic      Potential                Derivatives (V/Angs)
 No.   Label          (V)                 x           y           z
-------------------------------------------------------------------------------
     1 Sb    c    -52.171468           2.710415    0.356407    1.332232
     2 O     c     27.526665          -2.663815    0.606584    2.440055
     3 O     c     24.679759          -5.683747    5.358594   -6.250087
     4 O     c     23.083106          -0.000000  -11.119722    0.000000
-------------------------------------------------------------------------------

  Total time to end of lattice properties =       0.0000 s


  Peak dynamic memory used =       0.49 MB 


  Timing analysis for GULP :

--------------------------------------------------------------------------------
  Task / Subroutine                                          Time (Seconds)
--------------------------------------------------------------------------------
--------------------------------------------------------------------------------
  Total CPU time                                                  0.0000
--------------------------------------------------------------------------------


  Job Finished at 10:39.22  9th November   2011                               

