********************************************************************************
*                       GENERAL UTILITY LATTICE PROGRAM                        *
*                                 Julian Gale                                  *
*                      Nanochemistry Research Institute                        *
*             Curtin University of Technology, Western Australia               *
********************************************************************************
* Version = 3.4.9 * Last modified =   9th February 2010                        *
********************************************************************************
*  single       - perform a single point run                                   *
*  potential    - calculate electrostatic site potentials                      *
********************************************************************************

  Job Started  at 14:11.44  1st November   2011                               

  Number of CPUs =     1


  Total number of configurations input =   1

********************************************************************************
*  Input for Configuration =   1                                               *
********************************************************************************

  Formula = Sc16O24                                                     

  Number of irreducible atoms/shells =       3


  Total number atoms/shells =      40

  Dimensionality = 3               :  Bulk   


  Symmetry :

  Crystal family                   :  Cubic       
  Crystal class  (Groth - 1921)    :  Cubic Dyakisdodecahedral             

  Space group (centrosymmetric)    :  I A 3           

  Patterson group                  :  I m -3   

  Cartesian lattice vectors (Angstroms) :

       -4.923000    4.923000    4.923000
        4.923000   -4.923000    4.923000
        4.923000    4.923000   -4.923000

  Primitive cell parameters :            Full cell parameters :

  a =   8.5269    alpha = 109.4712       a =   9.8460    alpha =  90.0000
  b =   8.5269    beta  = 109.4712       b =   9.8460    beta  =  90.0000
  c =   8.5269    gamma = 109.4712       c =   9.8460    gamma =  90.0000

  Initial volumes (Angstroms**3):

  Primitive cell =         477.253914    Full cell =         954.507828

  Temperature of configuration =  0.000     K 

  Pressure of configuration =         0.000 GPa 

  Fractional coordinates of asymmetric unit :

--------------------------------------------------------------------------------
   No.  Atomic       x           y          z         Charge      Occupancy
        Label      (Frac)      (Frac)     (Frac)        (e)         (Frac)  
--------------------------------------------------------------------------------
      1 Sc    c    0.250000    0.250000    0.250000      3.0000    1.000000    
      2 Sc    c    0.964500    0.000000    0.250000      3.0000    1.000000    
      3 O     c    0.391400    0.154800    0.381400     -2.0000    1.000000    
--------------------------------------------------------------------------------



********************************************************************************
*  General input information                                                   *
********************************************************************************

  Species output for all configurations : 

--------------------------------------------------------------------------------
  Species    Type    Atomic    Atomic    Charge       Radii (Angs)     Library
                     Number     Mass       (e)     Cova   Ionic  VDW   Symbol
--------------------------------------------------------------------------------
    Sc       Core       21      44.96     3.0000   1.440  0.000  2.150          
    O        Core        8      16.00    -2.0000   0.730  0.000  1.360          
--------------------------------------------------------------------------------


  Lattice summation method               =    Ewald
  Accuracy factor for lattice sums       =    8.000


  Time limit = Infinity

********************************************************************************
*  Output for configuration   1                                                *
********************************************************************************


  Components of energy : 

--------------------------------------------------------------------------------
  Interatomic potentials     =           0.00000000 eV
  Monopole - monopole (real) =        -761.38273972 eV
  Monopole - monopole (recip)=        -601.36676927 eV
  Monopole - monopole (total)=       -1362.74950899 eV
--------------------------------------------------------------------------------
  Total lattice energy : 
    Primitive unit cell      =       -1362.74950899 eV
    Non-primitive unit cell  =       -2725.49901798 eV
--------------------------------------------------------------------------------
  Total lattice energy (in kJmol-1): 
    Primitive unit cell      =         -131484.4961 kJ/(mole unit cells)
    Non-primitive unit cell  =         -262968.9922 kJ/(mole unit cells)
--------------------------------------------------------------------------------


  Electrostatic potential at atomic positions :

-------------------------------------------------------------------------------
 Site  Atomic      Potential                Derivatives (V/Angs)
 No.   Label          (V)                 x           y           z
-------------------------------------------------------------------------------
     1 Sc    c    -33.221759          -0.000000    0.000000    0.000000
     2 Sc    c    -33.130739          -0.567789    0.000000    0.000000
     3 O     c     23.627735          -1.280795   -1.083787    0.385281
-------------------------------------------------------------------------------

  Total time to end of lattice properties =       0.0156 s


  Peak dynamic memory used =       0.52 MB 


  Timing analysis for GULP :

--------------------------------------------------------------------------------
  Task / Subroutine                                          Time (Seconds)
--------------------------------------------------------------------------------
  Calculation of real space energy using symmetry                 0.0156
--------------------------------------------------------------------------------
  Total CPU time                                                  0.0156
--------------------------------------------------------------------------------


  Job Finished at 14:11.44  1st November   2011                               

