********************************************************************************
*                       GENERAL UTILITY LATTICE PROGRAM                        *
*                                 Julian Gale                                  *
*                      Nanochemistry Research Institute                        *
*             Curtin University of Technology, Western Australia               *
********************************************************************************
* Version = 3.4.9 * Last modified =   9th February 2010                        *
********************************************************************************
*  single       - perform a single point run                                   *
*  potential    - calculate electrostatic site potentials                      *
*  distance     - calculate distances                                          *
********************************************************************************

  Job Started  at 13:34.16  9th November   2011                               

  Number of CPUs =     1


  Total number of configurations input =   1

********************************************************************************
*  Input for Configuration =   1                                               *
********************************************************************************

  Formula = Tl4O2                                                       

  Number of irreducible atoms/shells =       3


  Total number atoms/shells =       6

  Dimensionality = 3               :  Bulk   


  Symmetry :

  Crystal family                   :  Hexagonal   
  Crystal class  (Groth - 1921)    :  Ditrigonal Scalenohedral             

  Space group (centrosymmetric)    :  R -3 M          

  Patterson group                  :  R -3 m   

  Cartesian lattice vectors (Angstroms) :

        1.758000    1.014982   12.613333
       -1.758000    1.014982   12.613333
        0.000000   -2.029964   12.613333

  Primitive cell parameters :            Full cell parameters :

  a =  12.7756    alpha =  15.8186       a =   3.5160    alpha =  90.0000
  b =  12.7756    beta  =  15.8186       b =   3.5160    beta  =  90.0000
  c =  12.7756    gamma =  15.8186       c =  37.8400    gamma = 120.0000

  Initial volumes (Angstroms**3):

  Primitive cell =         135.038697    Full cell =         405.116090

  Temperature of configuration =  0.000     K 

  Pressure of configuration =         0.000 GPa 

  Fractional coordinates of asymmetric unit :

--------------------------------------------------------------------------------
   No.  Atomic       x           y          z         Charge      Occupancy
        Label      (Frac)      (Frac)     (Frac)        (e)         (Frac)  
--------------------------------------------------------------------------------
      1 Tl    c    0.000000    0.000000    0.123000      1.0000    1.000000    
      2 Tl    c    0.000000    0.000000    0.290000      1.0000    1.000000    
      3 O     c    0.000000    0.000000    0.417000     -2.0000    1.000000    
--------------------------------------------------------------------------------



  Distance calculation :


  Cutoff for distances  =      2.000000 Angstroms

--------------------------------------------------------------------------------
  Asymmetric unit site  Full lattice sites    No.  Distance      No.  Distance
      No.   At.No.            At.No.                (Angs)             (Angs) 
--------------------------------------------------------------------------------



********************************************************************************
*  General input information                                                   *
********************************************************************************

  Species output for all configurations : 

--------------------------------------------------------------------------------
  Species    Type    Atomic    Atomic    Charge       Radii (Angs)     Library
                     Number     Mass       (e)     Cova   Ionic  VDW   Symbol
--------------------------------------------------------------------------------
    Tl       Core       81     204.38     1.0000   1.550  0.000  2.310          
    O        Core        8      16.00    -2.0000   0.730  0.000  1.360          
--------------------------------------------------------------------------------


  Lattice summation method               =    Ewald
  Accuracy factor for lattice sums       =    8.000


  Time limit = Infinity

********************************************************************************
*  Output for configuration   1                                                *
********************************************************************************


  Components of energy : 

--------------------------------------------------------------------------------
  Interatomic potentials     =           0.00000000 eV
  Monopole - monopole (real) =         -13.68860614 eV
  Monopole - monopole (recip)=         -34.99579498 eV
  Monopole - monopole (total)=         -48.68440112 eV
--------------------------------------------------------------------------------
  Total lattice energy : 
    Primitive unit cell      =         -48.68440112 eV
    Non-primitive unit cell  =        -146.05320337 eV
--------------------------------------------------------------------------------
  Total lattice energy (in kJmol-1): 
    Primitive unit cell      =           -4697.3005 kJ/(mole unit cells)
    Non-primitive unit cell  =          -14091.9015 kJ/(mole unit cells)
--------------------------------------------------------------------------------


  Electrostatic potential at atomic positions :

-------------------------------------------------------------------------------
 Site  Atomic      Potential                Derivatives (V/Angs)
 No.   Label          (V)                 x           y           z
-------------------------------------------------------------------------------
     1 Tl    c    -10.493071           0.000000   -0.000000    6.492999
     2 Tl    c     -9.930316           0.000000   -0.000000    6.616610
     3 O     c     14.130550           0.000000   -0.000000   -0.070588
-------------------------------------------------------------------------------

  Total time to end of lattice properties =       0.0000 s


  Peak dynamic memory used =       0.47 MB 


  Timing analysis for GULP :

--------------------------------------------------------------------------------
  Task / Subroutine                                          Time (Seconds)
--------------------------------------------------------------------------------
--------------------------------------------------------------------------------
  Total CPU time                                                  0.0000
--------------------------------------------------------------------------------


  Job Finished at 13:34.16  9th November   2011                               

