********************************************************************************
*                       GENERAL UTILITY LATTICE PROGRAM                        *
*                                 Julian Gale                                  *
*                      Nanochemistry Research Institute                        *
*             Curtin University of Technology, Western Australia               *
********************************************************************************
* Version = 3.4.9 * Last modified =   9th February 2010                        *
********************************************************************************
*  single       - perform a single point run                                   *
*  potential    - calculate electrostatic site potentials                      *
*  distance     - calculate distances                                          *
********************************************************************************

  Job Started  at 11:27.28  2nd December   2011                               

  Number of CPUs =     1


  Total number of configurations input =   1

********************************************************************************
*  Input for Configuration =   1                                               *
********************************************************************************

  Formula = Tl16O24                                                     

  Number of irreducible atoms/shells =       3


  Total number atoms/shells =      40

  Dimensionality = 3               :  Bulk   


  Symmetry :

  Crystal family                   :  Cubic       
  Crystal class  (Groth - 1921)    :  Cubic Dyakisdodecahedral             

  Space group (centrosymmetric)    :  I A 3           

  Patterson group                  :  I m -3   

  Cartesian lattice vectors (Angstroms) :

       -5.271500    5.271500    5.271500
        5.271500   -5.271500    5.271500
        5.271500    5.271500   -5.271500

  Primitive cell parameters :            Full cell parameters :

  a =   9.1305    alpha = 109.4712       a =  10.5430    alpha =  90.0000
  b =   9.1305    beta  = 109.4712       b =  10.5430    beta  =  90.0000
  c =   9.1305    gamma = 109.4712       c =  10.5430    gamma =  90.0000

  Initial volumes (Angstroms**3):

  Primitive cell =         585.952787    Full cell =        1171.905573

  Temperature of configuration =  0.000     K 

  Pressure of configuration =         0.000 GPa 

  Fractional coordinates of asymmetric unit :

--------------------------------------------------------------------------------
   No.  Atomic       x           y          z         Charge      Occupancy
        Label      (Frac)      (Frac)     (Frac)        (e)         (Frac)  
--------------------------------------------------------------------------------
      1 Tl    c    0.706000    0.000000    0.250000      3.0000    1.000000    
      2 Tl    c    0.250000    0.250000    0.250000      3.0000    1.000000    
      3 O     c    0.343000    0.103000    0.123000     -2.0000    1.000000    
--------------------------------------------------------------------------------



  Distance calculation :


  Cutoff for distances  =      2.000000 Angstroms

--------------------------------------------------------------------------------
  Asymmetric unit site  Full lattice sites    No.  Distance      No.  Distance
      No.   At.No.            At.No.                (Angs)             (Angs) 
--------------------------------------------------------------------------------
       1   Tl    core        O     core         2    1.9551
--------------------------------------------------------------------------------
       3   O     core        Tl    core         1    1.9551
--------------------------------------------------------------------------------



********************************************************************************
*  General input information                                                   *
********************************************************************************

  Species output for all configurations : 

--------------------------------------------------------------------------------
  Species    Type    Atomic    Atomic    Charge       Radii (Angs)     Library
                     Number     Mass       (e)     Cova   Ionic  VDW   Symbol
--------------------------------------------------------------------------------
    Tl       Core       81     204.38     3.0000   1.550  0.000  2.310          
    O        Core        8      16.00    -2.0000   0.730  0.000  1.360          
--------------------------------------------------------------------------------


  Lattice summation method               =    Ewald
  Accuracy factor for lattice sums       =    8.000


  Time limit = Infinity

********************************************************************************
*  Output for configuration   1                                                *
********************************************************************************


  Components of energy : 

--------------------------------------------------------------------------------
  Interatomic potentials     =           0.00000000 eV
  Monopole - monopole (real) =        -593.58476780 eV
  Monopole - monopole (recip)=        -557.43723494 eV
  Monopole - monopole (total)=       -1151.02200274 eV
--------------------------------------------------------------------------------
  Total lattice energy : 
    Primitive unit cell      =       -1151.02200274 eV
    Non-primitive unit cell  =       -2302.04400547 eV
--------------------------------------------------------------------------------
  Total lattice energy (in kJmol-1): 
    Primitive unit cell      =         -111056.0283 kJ/(mole unit cells)
    Non-primitive unit cell  =         -222112.0566 kJ/(mole unit cells)
--------------------------------------------------------------------------------


  Electrostatic potential at atomic positions :

-------------------------------------------------------------------------------
 Site  Atomic      Potential                Derivatives (V/Angs)
 No.   Label          (V)                 x           y           z
-------------------------------------------------------------------------------
     1 Tl    c    -27.681521           1.133744   -0.000000   -0.000000
     2 Tl    c    -20.607237           0.000000    0.000000    0.000000
     3 O     c     22.046300         -11.138178    7.850720    1.991307
-------------------------------------------------------------------------------

  Total time to end of lattice properties =       0.0312 s


  Peak dynamic memory used =       0.52 MB 


  Timing analysis for GULP :

--------------------------------------------------------------------------------
  Task / Subroutine                                          Time (Seconds)
--------------------------------------------------------------------------------
  Calculation of reciprocal space energy and derivatives          0.0156
--------------------------------------------------------------------------------
  Total CPU time                                                  0.0312
--------------------------------------------------------------------------------


  Job Finished at 11:27.28  2nd December   2011                               

