********************************************************************************
*                       GENERAL UTILITY LATTICE PROGRAM                        *
*                                 Julian Gale                                  *
*                      Nanochemistry Research Institute                        *
*             Curtin University of Technology, Western Australia               *
********************************************************************************
* Version = 3.4.9 * Last modified =   9th February 2010                        *
********************************************************************************
*  single       - perform a single point run                                   *
*  potential    - calculate electrostatic site potentials                      *
*  distance     - calculate distances                                          *
********************************************************************************

  Job Started  at 14:56.05  9th November   2011                               

  Number of CPUs =     1


  Total number of configurations input =   1

********************************************************************************
*  Input for Configuration =   1                                               *
********************************************************************************

  Formula = V4O10                                                       

  Number of irreducible atoms/shells =       4


  Total number atoms/shells =      14

  Dimensionality = 3               :  Bulk   


  Symmetry :

  Crystal family                   :  Orthorhombic
  Crystal class  (Groth - 1921)    :  Orthorhombic Pyramidal               

  Space group (noncentrosymmetric) :  P M N 21        

  Patterson group                  :  P m m m  

  Cartesian lattice vectors (Angstroms) :

       11.544200    0.000000    0.000000
        0.000000    3.571100    0.000000
        0.000000    0.000000    4.383100

  Cell parameters (Angstroms/Degrees):

  a =      11.5442    alpha =  90.0000
  b =       3.5711    beta  =  90.0000
  c =       4.3831    gamma =  90.0000

  Initial cell volume =         180.695457 Angs**3

  Temperature of configuration =  0.000     K 

  Pressure of configuration =         0.000 GPa 

  Fractional coordinates of asymmetric unit :

--------------------------------------------------------------------------------
   No.  Atomic       x           y          z         Charge      Occupancy
        Label      (Frac)      (Frac)     (Frac)        (e)         (Frac)  
--------------------------------------------------------------------------------
      1 V     c    0.148800    0.391300    0.000000      5.0000    1.000000    
      2 O     c    0.145700    0.030400    0.029500     -2.0000    1.000000    
      3 O     c    0.319100    0.502700    0.004900     -2.0000    1.000000    
      4 O     c    0.000000    0.499600    0.002600     -2.0000    1.000000    
--------------------------------------------------------------------------------



  Distance calculation :


  Cutoff for distances  =      2.000000 Angstroms

--------------------------------------------------------------------------------
  Asymmetric unit site  Full lattice sites    No.  Distance      No.  Distance
      No.   At.No.            At.No.                (Angs)             (Angs) 
--------------------------------------------------------------------------------
       1   V     core        O     core         1    1.2958        1    1.7608
--------------------------------------------------------------------------------
       2   O     core        V     core         1    1.2958
--------------------------------------------------------------------------------
       4   O     core        V     core         2    1.7608
--------------------------------------------------------------------------------



********************************************************************************
*  General input information                                                   *
********************************************************************************

  Species output for all configurations : 

--------------------------------------------------------------------------------
  Species    Type    Atomic    Atomic    Charge       Radii (Angs)     Library
                     Number     Mass       (e)     Cova   Ionic  VDW   Symbol
--------------------------------------------------------------------------------
    V        Core       23      50.94     5.0000   1.330  0.000  1.990          
    O        Core        8      16.00    -2.0000   0.730  0.000  1.360          
--------------------------------------------------------------------------------


  Lattice summation method               =    Ewald
  Accuracy factor for lattice sums       =    8.000


  Time limit = Infinity

********************************************************************************
*  Output for configuration   1                                                *
********************************************************************************


  Components of energy : 

--------------------------------------------------------------------------------
  Interatomic potentials     =           0.00000000 eV
  Monopole - monopole (real) =        -414.36817920 eV
  Monopole - monopole (recip)=        -442.15466522 eV
  Monopole - monopole (total)=        -856.52284441 eV
--------------------------------------------------------------------------------
  Total lattice energy       =        -856.52284441 eV
--------------------------------------------------------------------------------
  Total lattice energy       =          -82641.3613 kJ/(mole unit cells)
--------------------------------------------------------------------------------


  Electrostatic potential at atomic positions :

-------------------------------------------------------------------------------
 Site  Atomic      Potential                Derivatives (V/Angs)
 No.   Label          (V)                 x           y           z
-------------------------------------------------------------------------------
     1 V     c    -55.749660           3.164531    9.677357   -1.540470
     2 O     c     35.640164           2.608431   29.436064   -4.241651
     3 O     c     24.872496          -7.698027    0.186920    0.755045
     4 O     c     28.487799          -0.000000   -6.040395   -0.729138
-------------------------------------------------------------------------------

  Total time to end of lattice properties =       0.0156 s


  Peak dynamic memory used =       0.49 MB 


  Timing analysis for GULP :

--------------------------------------------------------------------------------
  Task / Subroutine                                          Time (Seconds)
--------------------------------------------------------------------------------
--------------------------------------------------------------------------------
  Total CPU time                                                  0.0156
--------------------------------------------------------------------------------


  Job Finished at 14:56.05  9th November   2011                               

