********************************************************************************
*                       GENERAL UTILITY LATTICE PROGRAM                        *
*                                 Julian Gale                                  *
*                      Nanochemistry Research Institute                        *
*             Curtin University of Technology, Western Australia               *
********************************************************************************
* Version = 3.4.9 * Last modified =   9th February 2010                        *
********************************************************************************
*  single       - perform a single point run                                   *
*  potential    - calculate electrostatic site potentials                      *
*  distance     - calculate distances                                          *
********************************************************************************

  Job Started  at 10:51.11  9th November   2011                               

  Number of CPUs =     1


  Total number of configurations input =   1

********************************************************************************
*  Input for Configuration =   1                                               *
********************************************************************************

  Formula = W4O8                                                        

  Number of irreducible atoms/shells =       3


  Total number atoms/shells =      12

  Dimensionality = 3               :  Bulk   


  Symmetry :

  Crystal family                   :  Monoclinic  
  Crystal class  (Groth - 1921)    :  Monoclinic Prismatic                 

  Space group (centrosymmetric)    :  P 21/C          

  Patterson group                  :  P 2/m    

  Cartesian lattice vectors (Angstroms) :

        5.563200    0.000000    0.000000
        0.000000    4.896300    0.000000
       -2.821027    0.000000    4.794893

  Cell parameters (Angstroms/Degrees):

  a =       5.5632    alpha =  90.0000
  b =       4.8963    beta  = 120.4700
  c =       5.5632    gamma =  90.0000

  Initial cell volume =         130.608554 Angs**3

  Temperature of configuration =  0.000     K 

  Pressure of configuration =         0.000 GPa 

  Fractional coordinates of asymmetric unit :

--------------------------------------------------------------------------------
   No.  Atomic       x           y          z         Charge      Occupancy
        Label      (Frac)      (Frac)     (Frac)        (e)         (Frac)  
--------------------------------------------------------------------------------
      1 W     c    0.227800    0.989800    0.011100      4.0000    1.000000    
      2 O     c    0.111900    0.218600    0.233500     -2.0000    1.000000    
      3 O     c    0.390100    0.702400    0.298700     -2.0000    1.000000    
--------------------------------------------------------------------------------



  Distance calculation :


  Cutoff for distances  =      2.000000 Angstroms

--------------------------------------------------------------------------------
  Asymmetric unit site  Full lattice sites    No.  Distance      No.  Distance
      No.   At.No.            At.No.                (Angs)             (Angs) 
--------------------------------------------------------------------------------
       1   W     core        O     core         1    1.9569        1    1.9637
                                                1    1.9724
--------------------------------------------------------------------------------
       2   O     core        W     core         1    1.9569        1    1.9637
--------------------------------------------------------------------------------
       3   O     core        W     core         1    1.9724
--------------------------------------------------------------------------------



********************************************************************************
*  General input information                                                   *
********************************************************************************

  Species output for all configurations : 

--------------------------------------------------------------------------------
  Species    Type    Atomic    Atomic    Charge       Radii (Angs)     Library
                     Number     Mass       (e)     Cova   Ionic  VDW   Symbol
--------------------------------------------------------------------------------
    W        Core       74     183.85     4.0000   1.370  0.000  2.040          
    O        Core        8      16.00    -2.0000   0.730  0.000  1.360          
--------------------------------------------------------------------------------


  Lattice summation method               =    Ewald
  Accuracy factor for lattice sums       =    8.000


  Time limit = Infinity

********************************************************************************
*  Output for configuration   1                                                *
********************************************************************************


  Components of energy : 

--------------------------------------------------------------------------------
  Interatomic potentials     =           0.00000000 eV
  Monopole - monopole (real) =        -208.26616973 eV
  Monopole - monopole (recip)=        -332.51129854 eV
  Monopole - monopole (total)=        -540.77746826 eV
--------------------------------------------------------------------------------
  Total lattice energy       =        -540.77746826 eV
--------------------------------------------------------------------------------
  Total lattice energy       =          -52176.7591 kJ/(mole unit cells)
--------------------------------------------------------------------------------


  Electrostatic potential at atomic positions :

-------------------------------------------------------------------------------
 Site  Atomic      Potential                Derivatives (V/Angs)
 No.   Label          (V)                 x           y           z
-------------------------------------------------------------------------------
     1 W     c    -42.463139          -3.692715    0.043516    0.098958
     2 O     c     26.482446          -1.521453   -2.769901   -3.800999
     3 O     c     23.785643          -1.461711   -0.168619    0.031133
-------------------------------------------------------------------------------

  Total time to end of lattice properties =       0.0156 s


  Peak dynamic memory used =       0.47 MB 


  Timing analysis for GULP :

--------------------------------------------------------------------------------
  Task / Subroutine                                          Time (Seconds)
--------------------------------------------------------------------------------
  Calculation of real space energy using symmetry                 0.0156
--------------------------------------------------------------------------------
  Total CPU time                                                  0.0156
--------------------------------------------------------------------------------


  Job Finished at 10:51.11  9th November   2011                               

