********************************************************************************
*                       GENERAL UTILITY LATTICE PROGRAM                        *
*                                 Julian Gale                                  *
*                      Nanochemistry Research Institute                        *
*             Curtin University of Technology, Western Australia               *
********************************************************************************
* Version = 3.4.9 * Last modified =   9th February 2010                        *
********************************************************************************
*  single       - perform a single point run                                   *
*  potential    - calculate electrostatic site potentials                      *
*  distance     - calculate distances                                          *
********************************************************************************

  Job Started  at 11:01.07  9th November   2011                               

  Number of CPUs =     1


  Total number of configurations input =   1

********************************************************************************
*  Input for Configuration =   1                                               *
********************************************************************************

  Formula = W8O24                                                       

  Number of irreducible atoms/shells =       8


  Total number atoms/shells =      32

  Dimensionality = 3               :  Bulk   


  Symmetry :

  Crystal family                   :  Monoclinic  
  Crystal class  (Groth - 1921)    :  Monoclinic Prismatic                 

  Space group (centrosymmetric)    :  P 21/C          

  Patterson group                  :  P 2/m    

  Cartesian lattice vectors (Angstroms) :

        7.297000    0.000000    0.000000
        0.000000    7.539000    0.000000
       -0.122099    0.000000    7.687030

  Cell parameters (Angstroms/Degrees):

  a =       7.2970    alpha =  90.0000
  b =       7.5390    beta  =  90.9100
  c =       7.6880    gamma =  90.0000

  Initial cell volume =         422.879552 Angs**3

  Temperature of configuration =  0.000     K 

  Pressure of configuration =         0.000 GPa 

  Fractional coordinates of asymmetric unit :

--------------------------------------------------------------------------------
   No.  Atomic       x           y          z         Charge      Occupancy
        Label      (Frac)      (Frac)     (Frac)        (e)         (Frac)  
--------------------------------------------------------------------------------
      1 W     c    0.254600    0.037500    0.282500      6.0000    1.000000    
      2 W     c    0.250900    0.023600    0.784500      6.0000    1.000000    
      3 O     c    0.005500    0.042500    0.211400     -2.0000    1.000000    
      4 O     c    0.993600    0.474500    0.218500     -2.0000    1.000000    
      5 O     c    0.288300    0.262600    0.286300     -2.0000    1.000000    
      6 O     c    0.211300    0.259800    0.730300     -2.0000    1.000000    
      7 O     c    0.292600    0.043500    0.008400     -2.0000    1.000000    
      8 O     c    0.279700    0.487600    0.993300     -2.0000    1.000000    
--------------------------------------------------------------------------------



  Distance calculation :


  Cutoff for distances  =      2.000000 Angstroms

--------------------------------------------------------------------------------
  Asymmetric unit site  Full lattice sites    No.  Distance      No.  Distance
      No.   At.No.            At.No.                (Angs)             (Angs) 
--------------------------------------------------------------------------------
       1   W     core        O     core         1    1.6100        1    1.6390
                                                1    1.7149        1    1.8723
                                                1    1.8901
--------------------------------------------------------------------------------
       2   W     core        O     core         1    1.6348        1    1.7497
                                                1    1.8505        1    1.9369
                                                1    1.9371
--------------------------------------------------------------------------------
       3   O     core        W     core         1    1.8901        1    1.9369
                             O     core         1    0.7438
--------------------------------------------------------------------------------
       4   O     core        W     core         1    1.8723        1    1.9371
                             O     core         1    0.7438
--------------------------------------------------------------------------------
       5   O     core        W     core         1    1.6348        1    1.7149
                             O     core         1    0.7224
--------------------------------------------------------------------------------
       6   O     core        W     core         1    1.6100        1    1.8505
                             O     core         1    0.7224
--------------------------------------------------------------------------------
       7   O     core        W     core         1    1.7497
--------------------------------------------------------------------------------
       8   O     core        W     core         1    1.6390
--------------------------------------------------------------------------------



********************************************************************************
*  General input information                                                   *
********************************************************************************

  Species output for all configurations : 

--------------------------------------------------------------------------------
  Species    Type    Atomic    Atomic    Charge       Radii (Angs)     Library
                     Number     Mass       (e)     Cova   Ionic  VDW   Symbol
--------------------------------------------------------------------------------
    W        Core       74     183.85     6.0000   1.370  0.000  2.040          
    O        Core        8      16.00    -2.0000   0.730  0.000  1.360          
--------------------------------------------------------------------------------


  Lattice summation method               =    Ewald
  Accuracy factor for lattice sums       =    8.000


  Time limit = Infinity

********************************************************************************
*  Output for configuration   1                                                *
********************************************************************************


  Components of energy : 

--------------------------------------------------------------------------------
  Interatomic potentials     =           0.00000000 eV
  Monopole - monopole (real) =        -865.66966756 eV
  Monopole - monopole (recip)=        -965.92735897 eV
  Monopole - monopole (total)=       -1831.59702653 eV
--------------------------------------------------------------------------------
  Total lattice energy       =       -1831.59702653 eV
--------------------------------------------------------------------------------
  Total lattice energy       =         -176721.1145 kJ/(mole unit cells)
--------------------------------------------------------------------------------


  Electrostatic potential at atomic positions :

-------------------------------------------------------------------------------
 Site  Atomic      Potential                Derivatives (V/Angs)
 No.   Label          (V)                 x           y           z
-------------------------------------------------------------------------------
     1 W     c    -66.802542          15.867932  -14.254652   -1.254423
     2 W     c    -63.507898          13.837672  -13.997321   -1.630985
     3 O     c     -3.350042          -2.119270   28.750558  -31.679783
     4 O     c     -2.793804          -2.473243  -30.122362  -32.160361
     5 O     c     11.023716          43.451124   15.824380   29.970322
     6 O     c      3.580416         -24.031632   18.401578  -20.925014
     7 O     c     28.239060           4.504452   -8.130321   -9.443622
     8 O     c     30.268591           5.893027    2.546803  -14.335164
-------------------------------------------------------------------------------

  Total time to end of lattice properties =       0.0156 s


  Peak dynamic memory used =       0.51 MB 


  Timing analysis for GULP :

--------------------------------------------------------------------------------
  Task / Subroutine                                          Time (Seconds)
--------------------------------------------------------------------------------
  Calculation of reciprocal space energy and derivatives          0.0156
--------------------------------------------------------------------------------
  Total CPU time                                                  0.0156
--------------------------------------------------------------------------------


  Job Finished at 11:01.07  9th November   2011                               

