********************************************************************************
*                       GENERAL UTILITY LATTICE PROGRAM                        *
*                                 Julian Gale                                  *
*                      Nanochemistry Research Institute                        *
*             Curtin University of Technology, Western Australia               *
********************************************************************************
* Version = 3.4.9 * Last modified =   9th February 2010                        *
********************************************************************************
*  single       - perform a single point run                                   *
*  potential    - calculate electrostatic site potentials                      *
********************************************************************************

  Job Started  at 11:19.59  8th November   2011                               

  Number of CPUs =     1


  Total number of configurations input =   1

********************************************************************************
*  Input for Configuration =   1                                               *
********************************************************************************

  Formula = Y16O24                                                      

  Number of irreducible atoms/shells =       3


  Total number atoms/shells =      40

  Dimensionality = 3               :  Bulk   


  Symmetry :

  Crystal family                   :  Cubic       
  Crystal class  (Groth - 1921)    :  Cubic Dyakisdodecahedral             

  Space group (centrosymmetric)    :  I A 3           

  Patterson group                  :  I m -3   

  Cartesian lattice vectors (Angstroms) :

       -5.302000    5.302000    5.302000
        5.302000   -5.302000    5.302000
        5.302000    5.302000   -5.302000

  Primitive cell parameters :            Full cell parameters :

  a =   9.1833    alpha = 109.4712       a =  10.6040    alpha =  90.0000
  b =   9.1833    beta  = 109.4712       b =  10.6040    beta  =  90.0000
  c =   9.1833    gamma = 109.4712       c =  10.6040    gamma =  90.0000

  Initial volumes (Angstroms**3):

  Primitive cell =         596.182414    Full cell =        1192.364829

  Temperature of configuration =  0.000     K 

  Pressure of configuration =         0.000 GPa 

  Fractional coordinates of asymmetric unit :

--------------------------------------------------------------------------------
   No.  Atomic       x           y          z         Charge      Occupancy
        Label      (Frac)      (Frac)     (Frac)        (e)         (Frac)  
--------------------------------------------------------------------------------
      1 Y     c    0.250000    0.250000    0.250000      3.0000    1.000000    
      2 Y     c    0.672700    0.000000    0.250000      3.0000    1.000000    
      3 O     c    0.390730    0.152030    0.380430     -2.0000    1.000000    
--------------------------------------------------------------------------------



********************************************************************************
*  General input information                                                   *
********************************************************************************

  Species output for all configurations : 

--------------------------------------------------------------------------------
  Species    Type    Atomic    Atomic    Charge       Radii (Angs)     Library
                     Number     Mass       (e)     Cova   Ionic  VDW   Symbol
--------------------------------------------------------------------------------
    Y        Core       39      88.91     3.0000   1.780  0.000  2.660          
    O        Core        8      16.00    -2.0000   0.730  0.000  1.360          
--------------------------------------------------------------------------------


  Lattice summation method               =    Ewald
  Accuracy factor for lattice sums       =    8.000


  Time limit = Infinity

********************************************************************************
*  Output for configuration   1                                                *
********************************************************************************


  Components of energy : 

--------------------------------------------------------------------------------
  Interatomic potentials     =           0.00000000 eV
  Monopole - monopole (real) =        -674.56684322 eV
  Monopole - monopole (recip)=        -555.12277042 eV
  Monopole - monopole (total)=       -1229.68961364 eV
--------------------------------------------------------------------------------
  Total lattice energy : 
    Primitive unit cell      =       -1229.68961364 eV
    Non-primitive unit cell  =       -2459.37922728 eV
--------------------------------------------------------------------------------
  Total lattice energy (in kJmol-1): 
    Primitive unit cell      =         -118646.2502 kJ/(mole unit cells)
    Non-primitive unit cell  =         -237292.5004 kJ/(mole unit cells)
--------------------------------------------------------------------------------


  Electrostatic potential at atomic positions :

-------------------------------------------------------------------------------
 Site  Atomic      Potential                Derivatives (V/Angs)
 No.   Label          (V)                 x           y           z
-------------------------------------------------------------------------------
     1 Y     c    -22.233310          -0.000000   -0.000000   -0.000000
     2 Y     c    -29.682439           4.590184    0.000000    0.000000
     3 O     c     23.416910           3.750675   13.407286   -7.906411
-------------------------------------------------------------------------------

  Total time to end of lattice properties =       0.0156 s


  Peak dynamic memory used =       0.52 MB 


  Timing analysis for GULP :

--------------------------------------------------------------------------------
  Task / Subroutine                                          Time (Seconds)
--------------------------------------------------------------------------------
  Symmetry generation of equivalent positions                     0.0156
--------------------------------------------------------------------------------
  Total CPU time                                                  0.0156
--------------------------------------------------------------------------------


  Job Finished at 11:19.59  8th November   2011                               

